file 23518540 1511742361                                        
version 2
run Tictoc17-0-20171127-00:52:26-16423
attr configname Tictoc17
attr datetime 20171127-00:52:26
attr experiment Tictoc17
attr inifile omnetpp.ini
attr iterationvars ""
attr iterationvarsf ""
attr measurement ""
attr network Tictoc17
attr processid 16423
attr repetition 0
attr replication #0
attr resultdir results
attr runnumber 0
attr seedset 0

vector 0 Tictoc17.tic[5] hopCount:vector ETV
attr interpolationmode none
attr source arrival
attr title "hop count, vector"
vector 1 Tictoc17.tic[0] hopCount:vector ETV
attr interpolationmode none
attr source arrival
attr title "hop count, vector"
vector 2 Tictoc17.tic[3] hopCount:vector ETV
attr interpolationmode none
attr source arrival
attr title "hop count, vector"
vector 3 Tictoc17.tic[4] hopCount:vector ETV
attr interpolationmode none
attr source arrival
attr title "hop count, vector"
vector 4 Tictoc17.tic[1] hopCount:vector ETV
attr interpolationmode none
attr source arrival
attr title "hop count, vector"
vector 5 Tictoc17.tic[2] hopCount:vector ETV
attr interpolationmode none
attr source arrival
attr title "hop count, vector"
5	1102 651801 145 1887973 14.4 188797.2 32768 1 125 410452 9935982
3	652903 639847 77 1893819 7.6 189381.8 32768 1 46 126610 1145738
2	1292750 665330 74 1900304 7.3 190030.3 32768 1 134 416884 10349988
4	1958080 653270 140 1903160 13.9 190315.9 32768 1 48 124172 1114224
1	2611350 652641 29 1909507 2.8 190950.6 32768 1 173 416474 10316652
0	3263991 665244 18 1925470 1.7 192546.9 32768 1 148 410846 9962652
5	3929235 690272 1888023 3780605 188802.2 378060.4 32768 1 177 412305 10098363
2	4619507 703562 1900354 3788734 190035.3 378873.3 32768 1 141 413388 10058462
3	5323069 678132 1893851 3794593 189385 379459.2 32768 1 52 124145 1113039
4	6001201 691536 1903164 3810670 190316.3 381066.9 32768 1 48 123846 1099382
1	6692737 690438 1909569 3822587 190956.8 382258.6 32768 1 118 412466 10127824
0	7383175 703451 1925522 3829124 192552.1 382912.3 32768 1 144 413251 10075937
5	8086626 690505 3780621 5676923 378062 567692.2 32768 1 151 414382 10181040
2	8777131 703381 3788764 5687146 378876.3 568714.5 32768 1 119 411438 10053156
3	9480512 678456 3794657 5698493 379465.6 569849.2 32768 1 56 124264 1114174
4	10158968 691588 3810800 5710816 381079.9 571081.5 32768 1 68 125128 1148900
1	10850556 690105 3822695 5724585 382269.4 572458.4 32768 1 132 410074 9901854
0	11540661 703470 3829196 5730554 382919.5 573055.3 32768 1 121 414294 10169008
5	12244131 690000 5677037 7570905 567703.6 757090.4 32768 1 138 413536 10011336
2	12934131 703329 5687210 7574360 568720.9 757435.9 32768 1 131 411958 10061568
3	13637460 678425 5698571 7577731 569857 757773 32768 1 56 124639 1124875
4	14315885 691461 5710854 7587698 571085.3 758769.7 32768 1 47 123161 1098115
1	15007346 690293 5724597 7623095 572459.6 762309.4 32768 1 195 409046 10000344
0	15697639 703407 5730570 7637578 573056.9 763757.7 32768 1 135 412471 10013247
2	16401046 703353 7574372 9451764 757437.1 945176.3 32768 1 150 409611 9918459
5	17104399 690342 7570941 9469973 757094 946997.2 32768 1 132 412717 10076275
4	17794741 691604 7587750 9472784 758774.9 947278.3 32768 1 45 124779 1125665
3	18486345 678745 7577753 9474287 757775.2 947428.6 32768 1 56 123797 1114345
1	19165090 690409 7623169 9534081 762316.8 953408 32768 1 162 416472 10287026
0	19855499 703333 7637800 9538164 763779.9 953816.3 32768 1 139 408696 9891416
0	20558832 481437 9538228 10771712 953822.7 1077171.1 21183 1 125 266969 6488495
1	21040269 473645 9534111 10771679 953411 1077167.8 21211 1 135 267101 6521271
2	21513914 517255 9451806 10771658 945180.5 1077165.7 22847 1 133 289551 7094027
3	22031169 489105 9474323 10771677 947432.2 1077167.6 22338 1 50 84552 747064
4	22520274 500357 9472860 10771692 947285.9 1077169.1 22440 1 47 85635 776517
5	23020631 497908 9470001 10771683 947000 1077168.2 22377 1 124 282601 6959011

