version 2
run Tictoc15-0-20171127-00:20:31-15369
attr configname Tictoc15
attr datetime 20171127-00:20:31
attr experiment Tictoc15
attr inifile omnetpp.ini
attr iterationvars ""
attr iterationvarsf ""
attr measurement ""
attr network Tictoc15
attr processid 15369
attr repetition 0
attr replication #0
attr resultdir results
attr runnumber 0
attr seedset 0

vector 0 Tictoc15.tic[5] HopCount ETV
vector 1 Tictoc15.tic[0] HopCount ETV
vector 2 Tictoc15.tic[3] HopCount ETV
vector 3 Tictoc15.tic[4] HopCount ETV
vector 4 Tictoc15.tic[1] HopCount ETV
vector 5 Tictoc15.tic[2] HopCount ETV
0	18	1.7	17
0	76	7.5	2
0	78	7.7	1
0	108	10.7	29
0	236	23.5	21
0	336	33.5	6
0	350	34.9	3
0	366	36.5	6
0	428	42.7	6
0	436	43.5	6
0	446	44.5	6
0	504	50.3	56
0	558	55.7	9
0	686	68.5	3
0	716	71.5	21
0	788	78.7	2
0	884	88.3	78
0	888	88.7	2
0	924	92.3	19
0	1000	99.9	3
0	1478	147.7	49
0	1526	152.5	17
0	1580	157.9	9
0	1628	162.7	8
0	1670	166.9	20
0	1734	173.3	27
0	1850	184.9	11
0	1884	188.3	22
0	1924	192.3	1
0	1956	195.5	9
0	2024	202.3	1
0	2106	210.5	42
0	2138	213.7	9
0	2222	222.1	54
0	2242	224.1	12
0	2290	228.9	5
0	2346	234.5	7
0	2388	238.7	9
0	2426	242.5	1
0	2492	249.1	4
0	2534	253.3	9
0	2566	256.5	10
0	2598	259.7	13
0	2614	261.3	2
0	2662	266.1	26
0	2886	288.5	31
0	2938	293.7	9
0	3068	306.7	54
0	3144	314.3	2
0	3170	316.9	18
0	3192	319.1	15
0	3204	320.3	4
0	3304	330.3	6
0	3390	338.9	29
0	3394	339.3	3
0	3402	340.1	7
0	3422	342.1	18
0	3440	343.9	6
0	3464	346.3	6
0	3528	352.7	38
0	3550	354.9	17
0	3590	358.9	15
0	3604	360.3	3
0	3606	360.5	1
0	3756	375.5	32
0	3914	391.3	1
0	3928	392.7	5
0	3958	395.7	2
0	4072	407.1	43
0	4108	410.7	2
0	4130	412.9	1
0	4136	413.5	2
0	4212	421.1	18
0	4258	425.7	14
0	4372	437.1	35
0	4532	453.1	4
0	4586	458.5	4
0	4694	469.3	24
0	4704	470.3	6
0	4794	479.3	29
0	4856	485.5	8
0	4888	488.7	11
0	5034	503.3	3
0	5096	509.5	8
0	5142	514.1	4
0	5158	515.7	5
0	5278	527.7	30
0	5386	538.5	25
0	5480	547.9	10
0	5560	555.9	26
0	5578	557.7	14
0	5594	559.3	4
0	5674	567.3	10
0	5714	571.3	27
0	5738	573.7	9
0	5782	578.1	9
0	5802	580.1	1
0	5958	595.7	1
0	5972	597.1	3
0	5996	599.5	1
0	6048	604.7	10
0	6100	609.9	25
0	6128	612.7	13
0	6230	622.9	21
0	6268	626.7	32
0	6292	629.1	7
0	6360	635.9	6
0	6528	652.7	35
0	6628	662.7	15
0	6634	663.3	4
0	6706	670.5	27
0	6776	677.5	18
0	6784	678.3	2
0	6868	686.7	33
0	6902	690.1	7
0	6938	693.7	5
0	6970	696.9	21
0	7030	702.9	25
0	7082	708.1	3
0	7142	714.1	45
0	7166	716.5	18
0	7210	720.9	3
0	7322	732.1	23
0	7328	732.7	4
0	7374	737.3	14
0	7484	748.3	15
0	7498	749.7	9
0	7568	756.7	7
0	7598	759.7	13
0	7622	762.1	22
0	7700	769.9	9
0	7720	771.9	1
0	7752	775.1	19
0	7764	776.3	7
0	7812	781.1	11
0	7848	784.7	10
0	7958	795.7	59
0	7986	798.5	7
0	8040	803.9	44
0	8060	805.9	11
0	8318	831.7	6
0	8402	840.1	24
0	8504	850.3	4
0	8574	857.3	25
0	8628	862.7	2
0	8680	867.9	1
0	8716	871.5	15
0	8784	878.3	7
0	8902	890.1	19
0	8994	899.3	27
0	9044	904.3	25
0	9068	906.7	19
0	9080	907.9	5
0	9152	915.1	3
0	9164	916.3	8
0	9170	916.9	4
0	9182	918.1	4
0	9206	920.5	7
0	9312	931.1	19
0	9340	933.9	11
0	9352	935.1	9
0	9458	945.7	25
0	9528	952.7	17
0	9594	959.3	1
0	9732	973.1	17
0	9778	977.7	1
0	9818	981.7	27
0	9866	986.5	8
0	9934	993.3	29
0	10038	1003.7	11
0	10078	1007.7	22
0	10096	1009.5	6
0	10140	1013.9	3
0	10158	1015.7	3
0	10180	1017.9	1
0	10194	1019.3	8
0	10264	1026.3	9
0	10352	1035.1	3
0	10526	1052.5	13
0	10562	1056.1	11
0	10616	1061.5	29
0	10668	1066.7	4
0	10680	1067.9	7
0	10694	1069.3	13
0	10784	1078.3	6
0	10804	1080.3	4
0	10812	1081.1	4
0	10830	1082.9	16
0	10912	1091.1	5
0	10998	1099.7	13
0	11120	1111.9	6
0	11154	1115.3	2
0	11180	1117.9	7
0	11344	1134.3	4
0	11402	1140.1	3
0	11430	1142.9	18
0	11494	1149.3	3
0	11580	1157.9	7
0	11606	1160.5	7
0	11616	1161.5	4
0	11792	1179.1	6
0	12072	1207.1	4
0	12084	1208.3	11
0	12124	1212.3	1
0	12152	1215.1	10
0	12210	1220.9	33
0	12216	1221.5	3
0	12284	1228.3	9
0	12330	1232.9	18
0	12352	1235.1	12
0	12378	1237.7	6
0	12412	1241.1	6
0	12468	1246.7	10
0	12510	1250.9	9
0	12520	1251.9	1
0	12660	1265.9	3
0	12676	1267.5	5
0	12722	1272.1	8
0	12864	1286.3	8
0	12874	1287.3	1
0	12910	1290.9	1
0	12934	1293.3	18
0	12966	1296.5	29
0	13056	1305.5	11
0	13058	1305.7	1
0	13084	1308.3	24
0	13128	1312.7	9
0	13144	1314.3	8
0	13168	1316.7	1
0	13208	1320.7	5
0	13244	1324.3	15
0	13260	1325.9	15
0	13322	1332.1	13
0	13362	1336.1	29
0	13464	1346.3	9
0	13470	1346.9	4
0	13502	1350.1	12
0	13554	1355.3	4
0	13566	1356.5	7
0	13820	1381.9	13
0	13886	1388.5	9
0	13902	1390.1	9
0	13950	1394.9	24
0	13986	1398.5	15
0	14012	1401.1	24
0	14070	1406.9	17
0	14136	1413.5	28
0	14182	1418.1	22
0	14228	1422.7	14
0	14322	1432.1	11
0	14418	1441.7	12
0	14484	1448.3	9
0	14546	1454.5	15
0	14634	1463.3	31
0	14668	1466.7	6
0	14688	1468.7	15
0	14722	1472.1	4
0	14738	1473.7	11
0	14788	1478.7	40
0	14836	1483.5	2
0	14872	1487.1	29
0	14898	1489.7	2
0	15088	1508.7	13
0	15138	1513.7	9
0	15194	1519.3	23
0	15224	1522.3	9
0	15266	1526.5	17
0	15298	1529.7	21
0	15332	1533.1	9
0	15366	1536.5	8
0	15382	1538.1	4
0	15410	1540.9	5
0	15516	1551.5	35
0	15594	1559.3	23
0	15682	1568.1	2
0	15760	1575.9	23
0	15808	1580.7	5
0	15850	1584.9	31
0	15852	1585.1	1
0	15906	1590.5	9
0	15982	1598.1	5
0	16012	1601.1	12
0	16102	1610.1	9
0	16132	1613.1	18
0	16154	1615.3	3
0	16176	1617.5	13
0	16266	1626.5	39
0	16272	1627.1	4
0	16348	1634.7	6
0	16352	1635.1	2
0	16368	1636.7	1
0	16382	1638.1	3
0	16456	1645.5	22
0	16518	1651.7	5
0	16676	1667.5	17
0	16748	1674.7	52
0	16856	1685.5	18
0	16868	1686.7	6
0	16984	1698.3	11
0	17212	1721.1	11
0	17240	1723.9	15
0	17242	1724.1	1
0	17380	1737.9	4
0	17398	1739.7	5
0	17476	1747.5	15
0	17508	1750.7	25
0	17516	1751.5	3
0	17580	1757.9	2
0	17588	1758.7	2
0	17718	1771.7	13
0	17736	1773.5	2
0	17772	1777.1	3
0	17806	1780.5	19
0	17884	1788.3	3
0	17928	1792.7	33
0	17974	1797.3	14
0	18092	1809.1	4
0	18134	1813.3	17
0	18164	1816.3	17
0	18218	1821.7	11
0	18240	1823.9	2
0	18284	1828.3	19
0	18350	1834.9	9
0	18476	1847.5	36
0	18486	1848.5	7
0	18552	1855.1	13
0	18596	1859.5	1
0	18692	1869.1	14
0	18712	1871.1	1
0	18720	1871.9	7
0	18896	1889.5	29
0	18952	1895.1	30
0	19000	1899.9	25
0	19022	1902.1	21
0	19052	1905.1	2
0	19162	1916.1	1
0	19214	1921.3	5
0	19252	1925.1	6
0	19280	1927.9	2
0	19308	1930.7	6
0	19318	1931.7	9
0	19348	1934.7	15
0	19458	1945.7	4
0	19546	1954.5	24
0	19660	1965.9	75
0	19712	1971.1	11
0	19774	1977.3	5
0	19838	1983.7	21
0	19870	1986.9	26
0	20000	1999.9	1
0	20024	2002.3	14
0	20066	2006.5	5
0	20068	2006.7	1
0	20130	2012.9	7
0	20136	2013.5	4
0	20144	2014.3	4
0	20190	2018.9	31
0	20254	2025.3	59
0	20302	2030.1	4
0	20364	2036.3	9
0	20402	2040.1	8
0	20500	2049.9	3
0	20506	2050.5	2
0	20526	2052.5	15
0	20618	2061.7	15
0	20708	2070.7	7
0	20736	2073.5	7
0	20800	2079.9	9
0	20830	2082.9	1
0	20868	2086.7	23
0	20996	2099.5	2
0	21048	2104.7	2
0	21232	2123.1	35
0	21236	2123.5	2
0	21282	2128.1	25
0	21288	2128.7	3
0	21328	2132.7	11
0	21448	2144.7	29
0	21508	2150.7	21
0	21586	2158.5	2
0	21658	2165.7	40
0	21680	2167.9	7
0	21720	2171.9	15
0	21778	2177.7	20
0	21848	2184.7	3
0	21912	2191.1	38
0	21922	2192.1	8
0	21992	2199.1	4
0	22088	2208.7	4
0	22112	2211.1	5
0	22150	2214.9	9
0	22156	2215.5	5
0	22234	2223.3	38
0	22256	2225.5	21
0	22268	2226.7	9
0	22360	2235.9	13
0	22370	2236.9	2
0	22440	2243.9	19
0	22488	2248.7	9
0	22510	2250.9	4
0	22642	2264.1	17
0	22712	2271.1	28
0	22756	2275.5	26
0	22798	2279.7	32
0	22830	2282.9	3
0	22892	2289.1	15
0	23086	2308.5	21
0	23144	2314.3	35
0	23220	2321.9	14
0	23232	2323.1	2
0	23246	2324.5	5
0	23304	2330.3	21
0	23406	2340.5	17
0	23420	2341.9	6
0	23484	2348.3	27
0	23562	2356.1	9
0	23580	2357.9	14
0	23646	2364.5	46
0	23676	2367.5	16
0	23694	2369.3	2
0	23712	2371.1	16
0	23726	2372.5	5
0	23732	2373.1	4
0	23766	2376.5	8
0	23790	2378.9	2
0	23828	2382.7	2
0	23850	2384.9	7
0	23898	2389.7	5
0	23950	2394.9	9
0	23978	2397.7	2
0	24018	2401.7	14
0	24134	2413.3	1
0	24164	2416.3	25
0	24170	2416.9	3
0	24232	2423.1	45
0	24262	2426.1	2
0	24386	2438.5	11
0	24438	2443.7	39
0	24532	2453.1	29
0	24624	2462.3	15
0	24656	2465.5	1
0	24674	2467.3	16
0	24760	2475.9	53
0	24824	2482.3	39
0	24838	2483.7	10
0	24902	2490.1	8
0	24984	2498.3	1
0	25006	2500.5	11
0	25076	2507.5	2
0	25130	2512.9	1
0	25260	2525.9	13
0	25302	2530.1	17
0	25360	2535.9	2
0	25430	2542.9	6
0	25482	2548.1	8
0	25524	2552.3	25
0	25548	2554.7	5
0	25576	2557.5	11
0	25582	2558.1	2
0	25614	2561.3	5
0	25752	2575.1	2
0	25782	2578.1	1
0	25844	2584.3	7
0	25910	2590.9	9
0	25974	2597.3	18
0	25982	2598.1	1
0	26034	2603.3	7
0	26076	2607.5	33
0	26098	2609.7	15
0	26128	2612.7	17
0	26218	2621.7	7
0	26284	2628.3	9
0	26310	2630.9	15
0	26338	2633.7	5
0	26354	2635.3	4
0	26418	2641.7	28
0	26470	2646.9	6
0	26516	2651.5	40
0	26710	2670.9	28
0	26734	2673.3	3
0	26766	2676.5	14
0	26784	2678.3	13
0	26828	2682.7	13
0	26850	2684.9	3
0	26884	2688.3	18
0	27002	2700.1	17
0	27014	2701.3	10
0	27024	2702.3	8
0	27038	2703.7	5
0	27082	2708.1	9
0	27308	2730.7	1
0	27340	2733.9	6
0	27390	2738.9	35
0	27526	2752.5	3
0	27534	2753.3	5
0	27574	2757.3	23
0	27584	2758.3	8
0	27642	2764.1	37
0	27668	2766.7	6
0	27806	2780.5	1
0	27882	2788.1	33
0	27972	2797.1	32
0	28016	2801.5	5
0	28030	2802.9	10
0	28086	2808.5	4
0	28140	2813.9	12
0	28242	2824.1	10
0	28284	2828.3	17
0	28336	2833.5	2
0	28356	2835.5	14
0	28372	2837.1	12
0	28496	2849.5	6
0	28524	2852.3	7
0	28622	2862.1	12
0	28632	2863.1	3
0	28664	2866.3	30
0	28712	2871.1	11
0	28714	2871.3	1
0	28812	2881.1	25
0	28824	2882.3	11
0	28898	2889.7	15
0	28994	2899.3	3
0	29086	2908.5	14
0	29120	2911.9	23
0	29208	2920.7	1
0	29248	2924.7	3
0	29302	2930.1	25
0	29394	2939.3	2
0	29416	2941.5	3
0	29498	2949.7	7
0	29568	2956.7	13
0	29592	2959.1	1
0	29644	2964.3	23
0	29836	2983.5	68
0	29864	2986.3	13
0	29898	2989.7	21
0	29986	2998.5	24
0	30006	3000.5	12
0	30210	3020.9	4
0	30258	3025.7	7
0	30288	3028.7	4
0	30312	3031.1	7
0	30336	3033.5	12
0	30344	3034.3	3
0	30386	3038.5	21
0	30406	3040.5	15
0	30416	3041.5	4
0	30434	3043.3	3
0	30528	3052.7	16
0	30616	3061.5	7
0	30664	3066.3	3
0	30678	3067.7	1
0	30740	3073.9	1
0	30790	3078.9	6
0	30812	3081.1	9
0	30830	3082.9	7
0	30936	3093.5	11
0	30946	3094.5	7
0	30962	3096.1	4
0	30988	3098.7	20
0	31126	3112.5	38
0	31226	3122.5	9
0	31306	3130.5	15
0	31330	3132.9	9
0	31422	3142.1	20
0	31488	3148.7	7
0	31524	3152.3	6
0	31806	3180.5	2
0	31896	3189.5	1
0	31976	3197.5	26
0	32044	3204.3	2
0	32046	3204.5	1
0	32050	3204.9	2
0	32072	3207.1	20
0	32144	3214.3	21
0	32232	3223.1	21
0	32254	3225.3	13
0	32274	3227.3	2
0	32298	3229.7	6
0	32334	3233.3	16
0	32344	3234.3	8
0	32380	3237.9	6
0	32398	3239.7	3
0	32432	3243.1	33
0	32504	3250.3	15
0	32550	3254.9	4
0	32554	3255.3	3
0	32594	3259.3	22
0	32666	3266.5	27
0	32826	3282.5	7
0	32990	3298.9	2
0	33006	3300.5	3
0	33010	3300.9	3
0	33082	3308.1	37
0	33118	3311.7	10
0	33162	3316.1	18
0	33194	3319.3	11
0	33196	3319.5	1
0	33326	3332.5	2
0	33422	3342.1	16
0	33440	3343.9	5
0	33448	3344.7	1
0	33452	3345.1	3
0	33512	3351.1	5
0	33520	3351.9	6
0	33718	3371.7	1
0	33826	3382.5	7
0	33846	3384.5	3
0	33890	3388.9	31
0	33908	3390.7	3
0	33950	3394.9	2
0	33964	3396.3	3
0	34070	3406.9	4
0	34102	3410.1	2
0	34148	3414.7	8
0	34194	3419.3	19
0	34200	3419.9	3
0	34204	3420.3	3
0	34242	3424.1	27
0	34280	3427.9	15
0	34360	3435.9	11
0	34414	3441.3	15
0	34516	3451.5	13
0	34540	3453.9	7
0	34592	3459.1	8
0	34610	3460.9	3
0	34654	3465.3	10
0	34748	3474.7	5
0	34774	3477.3	3
0	34830	3482.9	2
0	34844	3484.3	8
0	34962	3496.1	10
0	35048	3504.7	3
0	35128	3512.7	8
0	35134	3513.3	5
0	35184	3518.3	2
0	35232	3523.1	8
0	35300	3529.9	16
0	35334	3533.3	4
0	35348	3534.7	3
0	35382	3538.1	9
0	35512	3551.1	33
0	35610	3560.9	2
0	35756	3575.5	3
0	35826	3582.5	7
0	35844	3584.3	16
0	35858	3585.7	12
0	35886	3588.5	10
0	35952	3595.1	7
0	36018	3601.7	6
0	36098	3609.7	2
0	36114	3611.3	9
0	36178	3617.7	55
0	36234	3623.3	37
0	36252	3625.1	9
0	36290	3628.9	21
0	36348	3634.7	9
0	36450	3644.9	2
0	36518	3651.7	31
0	36642	3664.1	17
0	36710	3670.9	16
0	36712	3671.1	1
0	36768	3676.7	26
0	36794	3679.3	7
0	36816	3681.5	18
0	36900	3689.9	55
0	36978	3697.7	16
0	37128	3712.7	11
0	37334	3733.3	11
0	37420	3741.9	9
0	37422	3742.1	1
0	37436	3743.5	12
0	37498	3749.7	21
0	37528	3752.7	2
0	37552	3755.1	19
0	37620	3761.9	11
0	37676	3767.5	17
0	37712	3771.1	21
0	37766	3776.5	21
0	37786	3778.5	2
0	37842	3784.1	7
0	37882	3788.1	38
0	37922	3792.1	23
0	37924	3792.3	1
0	37944	3794.3	12
0	38062	3806.1	10
0	38076	3807.5	9
0	38084	3808.3	5
0	38190	3818.9	35
0	38214	3821.3	1
0	38278	3827.7	9
0	38358	3835.7	6
0	38382	3838.1	1
0	38396	3839.5	2
0	38432	3843.1	6
0	38458	3845.7	4
0	38550	3854.9	9
0	38614	3861.3	3
0	38622	3862.1	3
0	38642	3864.1	16
0	38660	3865.9	16
0	38762	3876.1	1
0	38780	3877.9	7
0	38794	3879.3	6
0	38914	3891.3	7
0	39062	3906.1	38
0	39096	3909.5	4
0	39124	3912.3	8
0	39140	3913.9	3
0	39172	3917.1	16
0	39250	3924.9	17
0	39278	3927.7	11
0	39284	3928.3	5
0	39414	3941.3	32
0	39462	3946.1	19
0	39510	3950.9	33
0	39632	3963.1	5
0	39664	3966.3	6
0	39676	3967.5	3
0	39796	3979.5	42
0	39864	3986.3	3
0	39956	3995.5	25
0	39968	3996.7	5
0	39994	3999.3	22
0	40018	4001.7	5
0	40072	4007.1	10
0	40176	4017.5	35
0	40282	4028.1	20
0	40332	4033.1	5
0	40436	4043.5	13
0	40474	4047.3	7
0	40500	4049.9	23
0	40548	4054.7	9
0	40630	4062.9	7
0	40660	4065.9	1
0	40816	4081.5	43
0	40818	4081.7	1
0	40854	4085.3	3
0	40922	4092.1	2
0	41024	4102.3	4
0	41076	4107.5	11
0	41154	4115.3	3
0	41192	4119.1	11
0	41230	4122.9	8
0	41324	4132.3	43
0	41342	4134.1	9
0	41366	4136.5	22
0	41396	4139.5	28
0	41464	4146.3	2
0	41506	4150.5	25
0	41526	4152.5	13
0	41544	4154.3	13
0	41604	4160.3	5
0	41608	4160.7	3
0	41666	4166.5	15
0	41716	4171.5	5
0	41720	4171.9	3
0	41986	4198.5	7
0	42092	4209.1	48
0	42124	4212.3	13
0	42132	4213.1	4
0	42152	4215.1	15
0	42314	4231.3	14
0	42344	4234.3	7
0	42420	4241.9	29
0	42530	4252.9	11
0	42594	4259.3	4
0	42660	4265.9	17
0	42788	4278.7	3
0	42854	4285.3	41
0	42894	4289.3	5
0	43006	4300.5	10
0	43060	4305.9	1
0	43068	4306.7	4
0	43122	4312.1	42
0	43184	4318.3	8
0	43272	4327.1	21
0	43294	4329.3	18
0	43310	4330.9	9
0	43334	4333.3	18
0	43378	4337.7	13
0	43428	4342.7	7
0	43538	4353.7	36
0	43568	4356.7	1
0	43604	4360.3	31
0	43640	4363.9	17
0	43722	4372.1	73
0	43772	4377.1	42
0	43992	4399.1	5
0	44010	4400.9	7
0	44078	4407.7	8
0	44114	4411.3	5
0	44178	4417.7	3
0	44244	4424.3	7
0	44310	4430.9	3
0	44374	4437.3	36
0	44398	4439.7	22
0	44474	4447.3	4
0	44494	4449.3	11
0	44534	4453.3	33
0	44580	4457.9	7
0	44636	4463.5	2
0	44680	4467.9	25
0	44796	4479.5	20
0	44892	4489.1	8
0	44940	4493.9	3
0	44982	4498.1	21
0	45026	4502.5	6
0	45076	4507.5	11
0	45242	4524.1	17
0	45262	4526.1	8
0	45302	4530.1	7
0	45474	4547.3	2
0	45516	4551.5	10
0	45560	4555.9	26
0	45682	4568.1	11
0	45796	4579.5	31
0	45900	4589.9	2
0	46018	4601.7	29
0	46036	4603.5	13
0	46084	4608.3	20
0	46096	4609.5	3
0	46140	4613.9	4
0	46156	4615.5	2
0	46194	4619.3	7
0	46292	4629.1	19
0	46352	4635.1	17
0	46406	4640.5	7
0	46464	4646.3	6
0	46478	4647.7	6
0	46480	4647.9	1
0	46512	4651.1	22
0	46664	4666.3	35
0	46834	4683.3	18
0	46980	4697.9	2
0	47112	4711.1	22
0	47122	4712.1	4
0	47166	4716.5	4
0	47338	4733.7	19
0	47356	4735.5	1
0	47480	4747.9	25
0	47498	4749.7	5
0	47548	4754.7	3
0	47566	4756.5	2
0	47588	4758.7	6
0	47736	4773.5	2
0	47826	4782.5	3
0	47856	4785.5	17
0	47976	4797.5	2
0	48050	4804.9	23
0	48108	4810.7	25
0	48160	4815.9	3
0	48224	4822.3	2
0	48234	4823.3	8
0	48298	4829.7	33
0	48470	4846.9	43
0	48484	4848.3	10
0	48512	4851.1	7
0	48590	4858.9	26
0	48612	4861.1	11
0	48664	4866.3	42
0	48680	4867.9	12
0	48726	4872.5	4
0	48798	4879.7	8
0	48826	4882.5	20
0	48904	4890.3	5
0	48976	4897.5	3
0	48994	4899.3	1
0	49024	4902.3	1
0	49058	4905.7	3
0	49144	4914.3	16
0	49178	4917.7	24
0	49184	4918.3	2
0	49200	4919.9	3
0	49210	4920.9	1
0	49254	4925.3	11
0	49296	4929.5	26
0	49302	4930.1	3
0	49356	4935.5	3
0	49546	4954.5	33
0	49580	4957.9	17
0	49598	4959.7	10
0	49626	4962.5	6
0	49672	4967.1	23
0	49730	4972.9	29
0	49794	4979.3	12
0	49932	4993.1	17
0	50206	5020.5	1
0	50208	5020.7	1
0	50264	5026.3	2
0	50266	5026.5	1
0	50282	5028.1	10
0	50286	5028.5	3
0	50374	5037.3	31
0	50432	5043.1	9
0	50580	5057.9	7
0	50590	5058.9	3
0	50594	5059.3	3
0	50688	5068.7	41
0	50726	5072.5	3
0	50754	5075.3	24
0	50796	5079.5	16
0	50828	5082.7	7
0	50938	5093.7	8
0	50972	5097.1	2
0	51180	5117.9	5
0	51228	5122.7	15
0	51260	5125.9	2
0	51342	5134.1	31
0	51420	5141.9	52
0	51446	5144.5	17
0	51464	5146.3	2
0	51524	5152.3	20
0	51586	5158.5	3
0	51678	5167.7	17
0	51708	5170.7	8
0	51732	5173.1	22
0	51758	5175.7	1
0	51760	5175.9	1
0	51842	5184.1	17
0	51894	5189.3	6
0	51950	5194.9	29
1	29	2.8	11
1	139	13.8	31
1	153	15.2	8
1	159	15.8	2
1	189	18.8	9
1	215	21.4	12
1	251	25	2
1	317	31.6	8
1	329	32.8	6
1	347	34.6	4
1	383	38.2	17
1	393	39.2	9
1	609	60.8	8
1	681	68	60
1	695	69.4	9
1	725	72.4	7
1	763	76.2	5
1	949	94.8	5
1	1105	110.4	1
1	1303	130.2	22
1	1369	136.8	2
1	1547	154.6	7
1	1555	155.4	4
1	1569	156.8	2
1	1587	158.6	7
1	1619	161.8	6
1	1797	179.6	15
1	1839	183.8	7
1	1861	186	10
1	1921	192	20
1	1947	194.6	16
1	2061	206	37
1	2129	212.8	21
1	2167	216.6	27
1	2273	227.2	22
1	2285	228.4	5
1	2309	230.8	18
1	2379	237.8	2
1	2423	242.2	16
1	2437	243.6	11
1	2525	252.4	32
1	2551	255	17
1	2743	274.2	7
1	2777	277.6	26
1	2827	282.6	15
1	2903	290.2	16
1	2913	291.2	5
1	2989	298.8	5
1	3009	300.8	2
1	3077	307.6	9
1	3175	317.4	4
1	3215	321.4	1
1	3219	321.8	2
1	3235	323.4	12
1	3297	329.6	2
1	3337	333.6	33
1	3357	335.6	4
1	3489	348.8	11
1	3575	357.4	2
1	3601	360	11
1	3685	368.4	13
1	3863	386.2	66
1	3897	389.6	1
1	4117	411.6	8
1	4133	413.2	3
1	4219	421.8	2
1	4223	422.2	2
1	4307	430.6	38
1	4337	433.6	23
1	4375	437.4	3
1	4507	450.6	44
1	4619	461.8	11
1	4765	476.4	5
1	4847	484.6	2
1	4875	487.4	5
1	4931	493	15
1	5023	502.2	7
1	5049	504.8	9
1	5127	512.6	30
1	5149	514.8	4
1	5215	521.4	36
1	5225	522.4	7
1	5393	539.2	7
1	5411	541	9
1	5449	544.8	7
1	5563	556.2	3
1	5623	562.2	21
1	5751	575	7
1	5773	577.2	21
1	5787	578.6	4
1	5837	583.6	35
1	5989	598.8	2
1	6001	600	5
1	6051	605	3
1	6071	607	5
1	6075	607.4	3
1	6111	611	10
1	6115	611.4	2
1	6137	613.6	8
1	6175	617.4	34
1	6209	620.8	9
1	6273	627.2	1
1	6451	645	7
1	6493	649.2	17
1	6591	659	51
1	6727	672.6	11
1	6817	681.6	23
1	6875	687.4	7
1	6933	693.2	22
1	7079	707.8	13
1	7091	709	9
1	7233	723.2	23
1	7285	728.4	13
1	7359	735.8	21
1	7469	746.8	41
1	7513	751.2	13
1	7559	755.8	28
1	7585	758.4	5
1	7691	769	39
1	7717	771.6	16
1	7733	773.2	4
1	7801	780	37
1	7855	785.4	5
1	7887	788.6	5
1	7977	797.6	6
1	7993	799.2	6
1	8091	809	31
1	8111	811	12
1	8171	817	3
1	8245	824.4	49
1	8475	847.4	14
1	8523	852.2	18
1	8651	865	2
1	8701	870	15
1	8745	874.4	19
1	8769	876.8	1
1	8829	882.8	14
1	8847	884.6	16
1	8967	896.6	13
1	9019	901.8	17
1	9049	904.8	5
1	9107	910.6	19
1	9121	912	8
1	9149	914.8	8
1	9155	915.4	1
1	9199	919.8	11
1	9343	934.2	1
1	9405	940.4	44
1	9419	941.8	11
1	9567	956.6	37
1	9585	958.4	4
1	9599	959.8	4
1	9705	970.4	27
1	9715	971.4	7
1	9855	985.4	35
1	9885	988.4	7
1	9905	990.4	11
1	10001	1000	12
1	10011	1001	2
1	10045	1004.4	7
1	10107	1010.6	5
1	10121	1012	2
1	10251	1025	6
1	10511	1051	95
1	10537	1053.6	4
1	10551	1055	4
1	10587	1058.6	1
1	10631	1063	13
1	10663	1066.2	13
1	10757	1075.6	37
1	10907	1090.6	77
1	10959	1095.8	5
1	10983	1098.2	5
1	11001	1100	3
1	11043	1104.2	38
1	11065	1106.4	16
1	11173	1117.2	18
1	11211	1121	12
1	11319	1131.8	21
1	11399	1139.8	38
1	11469	1146.8	26
1	11537	1153.6	8
1	11573	1157.2	18
1	11679	1167.8	15
1	11697	1169.6	4
1	11739	1173.8	1
1	11939	1193.8	47
1	12053	1205.2	38
1	12067	1206.6	5
1	12099	1209.8	15
1	12133	1213.2	4
1	12177	1217.6	6
1	12213	1221.2	3
1	12275	1227.4	1
1	12397	1239.6	2
1	12433	1243.2	19
1	12475	1247.4	7
1	12541	1254	21
1	12577	1257.6	1
1	12657	1265.6	5
1	12713	1271.2	10
1	12753	1275.2	21
1	12767	1276.6	6
1	12905	1290.4	28
1	13041	1304	7
1	13109	1310.8	6
1	13171	1317	3
1	13201	1320	3
1	13229	1322.8	5
1	13277	1327.6	17
1	13427	1342.6	7
1	13431	1343	2
1	13455	1345.4	9
1	13477	1347.6	7
1	13483	1348.2	4
1	13523	1352.2	6
1	13527	1352.6	1
1	13559	1355.8	5
1	13603	1360.2	30
1	13649	1364.8	15
1	13671	1367	18
1	13729	1372.8	37
1	13833	1383.2	8
1	13841	1384	4
1	13957	1395.6	1
1	13971	1397	9
1	14053	1405.2	9
1	14145	1414.4	5
1	14191	1419	9
1	14311	1431	19
1	14351	1435	28
1	14445	1444.4	25
1	14471	1447	25
1	14531	1453	7
1	14559	1455.8	13
1	14603	1460.2	40
1	14649	1464.8	9
1	14707	1470.6	19
1	14717	1471.6	8
1	14747	1474.6	9
1	14887	1488.6	2
1	15069	1506.8	2
1	15171	1517	2
1	15277	1527.6	11
1	15355	1535.4	23
1	15369	1536.8	3
1	15371	1537	1
1	15377	1537.6	4
1	15435	1543.4	15
1	15437	1543.6	1
1	15471	1547	10
1	15539	1553.8	23
1	15569	1556.8	15
1	15617	1561.6	23
1	15631	1563	13
1	15661	1566	13
1	15897	1589.6	28
1	15917	1591.6	2
1	15927	1592.6	2
1	15963	1596.2	13
1	15977	1597.6	7
1	16053	1605.2	41
1	16091	1609	10
1	16107	1610.6	1
1	16151	1615	13
1	16227	1622.6	19
1	16389	1638.8	1
1	16485	1648.4	5
1	16513	1651.2	19
1	16565	1656.4	17
1	16627	1662.6	2
1	16659	1665.8	13
1	16753	1675.2	5
1	16783	1678.2	5
1	16805	1680.4	4
1	16837	1683.6	19
1	16951	1695	8
1	17011	1701	14
1	17021	1702	6
1	17059	1705.8	21
1	17091	1709	2
1	17169	1716.8	26
1	17273	1727.2	27
1	17331	1733	39
1	17435	1743.4	7
1	17483	1748.2	7
1	17513	1751.2	2
1	17561	1756	4
1	17621	1762	30
1	17637	1763.6	6
1	17687	1768.6	2
1	17705	1770.4	2
1	17725	1772.4	3
1	17881	1788	54
1	17895	1789.4	11
1	17993	1799.2	8
1	18031	1803	4
1	18037	1803.6	4
1	18043	1804.2	4
1	18101	1810	9
1	18117	1811.6	15
1	18185	1818.4	18
1	18207	1820.6	4
1	18225	1822.4	7
1	18251	1825	2
1	18289	1828.8	5
1	18291	1829	1
1	18413	1841.2	11
1	18539	1853.8	8
1	18559	1855.8	7
1	18561	1856	1
1	18605	1860.4	5
1	18867	1886.6	43
1	19041	1904	2
1	19153	1915.2	13
1	19177	1917.6	14
1	19333	1933.2	15
1	19359	1935.8	10
1	19451	1945	24
1	19483	1948.2	5
1	19519	1951.8	10
1	19563	1956.2	17
1	19681	1968	21
1	19699	1969.8	14
1	19769	1976.8	6
1	19791	1979	7
1	19817	1981.6	9
1	19885	1988.4	15
1	19905	1990.4	2
1	19991	1999	3
1	20009	2000.8	2
1	20123	2012.2	19
1	20193	2019.2	3
1	20343	2034.2	6
1	20481	2048	5
1	20511	2051	5
1	20641	2064	23
1	20729	2072.8	21
1	20759	2075.8	8
1	20803	2080.2	3
1	20845	2084.4	6
1	20939	2093.8	12
1	21025	2102.4	3
1	21105	2110.4	5
1	21139	2113.8	30
1	21197	2119.6	31
1	21257	2125.6	20
1	21285	2128.4	3
1	21317	2131.6	12
1	21409	2140.8	27
1	21419	2141.8	1
1	21487	2148.6	25
1	21511	2151	3
1	21539	2153.8	14
1	21689	2168.8	6
1	21819	2181.8	41
1	21845	2184.4	16
1	22047	2204.6	49
1	22059	2205.8	6
1	22099	2209.8	11
1	22141	2214	1
1	22259	2225.8	1
1	22291	2229	5
1	22307	2230.6	4
1	22327	2232.6	19
1	22347	2234.6	5
1	22459	2245.8	1
1	22475	2247.4	12
1	22535	2253.4	24
1	22567	2256.6	8
1	22609	2260.8	2
1	22647	2264.6	5
1	22683	2268.2	12
1	22811	2281	13
1	22875	2287.4	12
1	22935	2293.4	43
1	23061	2306	3
1	23065	2306.4	2
1	23097	2309.6	10
1	23229	2322.8	1
1	23275	2327.4	5
1	23307	2330.6	3
1	23325	2332.4	2
1	23335	2333.4	3
1	23351	2335	7
1	23389	2338.8	26
1	23443	2344.2	5
1	23519	2351.8	3
1	23551	2355	12
1	23599	2359.8	11
1	23719	2371.8	7
1	23825	2382.4	10
1	23843	2384.2	15
1	23973	2397.2	23
1	23993	2399.2	14
1	24101	2410	15
1	24129	2412.8	4
1	24139	2413.8	5
1	24167	2416.6	1
1	24187	2418.6	5
1	24243	2424.2	9
1	24281	2428	5
1	24339	2433.8	32
1	24463	2446.2	18
1	24503	2450.2	33
1	24571	2457	2
1	24609	2460.8	16
1	24651	2465	9
1	24705	2470.4	31
1	24841	2484	1
1	24957	2495.6	35
1	24981	2498	23
1	24995	2499.4	11
1	25009	2500.8	3
1	25021	2502	2
1	25127	2512.6	8
1	25141	2514	1
1	25179	2517.8	10
1	25195	2519.4	13
1	25285	2528.4	4
1	25563	2556.2	15
1	25675	2567.4	18
1	25739	2573.8	33
1	25759	2575.8	5
1	25779	2577.8	15
1	25789	2578.8	7
1	25813	2581.2	4
1	25867	2586.6	23
1	25885	2588.4	17
1	25939	2593.8	12
1	25979	2597.8	1
1	26027	2602.6	15
1	26043	2604.2	3
1	26083	2608.2	7
1	26111	2611	4
1	26167	2616.6	4
1	26295	2629.4	11
1	26457	2645.6	3
1	26587	2658.6	18
1	26597	2659.6	8
1	26623	2662.2	24
1	26721	2672	11
1	26771	2677	4
1	26815	2681.4	20
1	26911	2691	11
1	26983	2698.2	21
1	27033	2703.2	9
1	27049	2704.8	11
1	27073	2707.2	2
1	27085	2708.4	2
1	27137	2713.6	35
1	27231	2723	5
1	27293	2729.2	24
1	27353	2735.2	13
1	27493	2749.2	101
1	27507	2750.6	8
1	27523	2752.2	15
1	27529	2752.8	3
1	27605	2760.4	21
1	27659	2765.8	13
1	27681	2768	12
1	27689	2768.8	1
1	27721	2772	16
1	27733	2773.2	10
1	27815	2781.4	9
1	27891	2789	9
1	27899	2789.8	6
1	27939	2793.8	36
1	28011	2801	27
1	28093	2809.2	2
1	28117	2811.6	15
1	28267	2826.6	23
1	28295	2829.4	11
1	28299	2829.8	2
1	28325	2832.4	6
1	28407	2840.6	15
1	28443	2844.2	9
1	28545	2854.4	21
1	28627	2862.6	2
1	28667	2866.6	3
1	28695	2869.4	3
1	28701	2870	5
1	28721	2872	5
1	28773	2877.2	21
1	28857	2885.6	5
1	28951	2895	2
1	29097	2909.6	7
1	29125	2912.4	5
1	29139	2913.8	1
1	29227	2922.6	6
1	29375	2937.4	28
1	29533	2953.2	35
1	29555	2955.4	18
1	29583	2958.2	7
1	29605	2960.4	11
1	29621	2962	10
1	29703	2970.2	43
1	29725	2972.4	20
1	29851	2985	15
1	29873	2987.2	9
1	29933	2993.2	21
1	29961	2996	4
1	30039	3003.8	10
1	30141	3014	2
1	30241	3024	22
1	30251	3025	9
1	30365	3036.4	11
1	30391	3039	5
1	30411	3041	5
1	30499	3049.8	21
1	30581	3058	38
1	30669	3066.8	5
1	30701	3070	8
1	30713	3071.2	10
1	30751	3075	5
1	30803	3080.2	13
1	30819	3081.8	7
1	30833	3083.2	3
1	31155	3115.4	8
1	31163	3116.2	7
1	31283	3128.2	57
1	31339	3133.8	9
1	31351	3135	1
1	31461	3146	12
1	31541	3154	14
1	31577	3157.6	12
1	31649	3164.8	19
1	31819	3181.8	13
1	31823	3182.2	3
1	31883	3188.2	11
1	32121	3212	9
1	32123	3212.2	1
1	32269	3226.8	15
1	32395	3239.4	9
1	32455	3245.4	11
1	32489	3248.8	23
1	32523	3252.2	19
1	32669	3266.8	3
1	32731	3273	10
1	32745	3274.4	8
1	32783	3278.2	15
1	32947	3294.6	2
1	33045	3304.4	35
1	33201	3320	1
1	33235	3323.4	27
1	33247	3324.6	8
1	33339	3333.8	4
1	33405	3340.4	26
1	33445	3344.4	4
1	33491	3349	20
1	33551	3355	30
1	33575	3357.4	8
1	33597	3359.6	11
1	33699	3369.8	1
1	33715	3371.4	12
1	33819	3381.8	2
1	33843	3384.2	15
1	33859	3385.8	8
1	33895	3389.4	4
1	33905	3390.4	6
1	33955	3395.4	5
1	33981	3398	17
1	33991	3399	9
1	34061	3406	21
1	34077	3407.6	4
1	34265	3426.4	4
1	34349	3434.8	2
1	34373	3437.2	13
1	34441	3444	12
1	34473	3447.2	12
1	34527	3452.6	11
1	34549	3454.8	7
1	34563	3456.2	12
1	34607	3460.6	15
1	34691	3469	2
1	34713	3471.2	4
1	34723	3472.2	9
1	34743	3474.2	4
1	34851	3485	7
1	34887	3488.6	17
1	34929	3492.8	10
1	35007	3500.6	18
1	35051	3505	3
1	35119	3511.8	39
1	35207	3520.6	11
1	35305	3530.4	5
1	35325	3532.4	6
1	35343	3534.2	5
1	35373	3537.2	25
1	35385	3538.4	3
1	35453	3545.2	2
1	35479	3547.8	4
1	35583	3558.2	20
1	35667	3566.6	57
1	35727	3572.6	3
1	35783	3578.2	26
1	35875	3587.4	8
1	35907	3590.6	21
1	35945	3594.4	3
1	35995	3599.4	9
1	36077	3607.6	2
1	36079	3607.8	1
1	36123	3612.2	3
1	36185	3618.4	7
1	36241	3624	7
1	36381	3638	33
1	36389	3638.8	7
1	36419	3641.8	15
1	36427	3642.6	6
1	36459	3645.8	9
1	36535	3653.4	16
1	36589	3658.8	32
1	36651	3665	9
1	36693	3669.2	25
1	36837	3683.6	2
1	36845	3684.4	3
1	36915	3691.4	14
1	37117	3711.6	76
1	37137	3713.6	3
1	37291	3729	6
1	37313	3731.2	16
1	37345	3734.4	11
1	37393	3739.2	5
1	37465	3746.4	29
1	37517	3751.6	2
1	37591	3759	39
1	37659	3765.8	30
1	37691	3769	6
1	37723	3772.2	11
1	37739	3773.8	2
1	37783	3778.2	17
1	37819	3781.8	33
1	37895	3789.4	13
1	38037	3803.6	58
1	38067	3806.6	5
1	38113	3811.2	14
1	38135	3813.4	12
1	38201	3820	11
1	38269	3826.8	31
1	38315	3831.4	2
1	38561	3856	4
1	38589	3858.8	4
1	38721	3872	3
1	38843	3884.2	3
1	38907	3890.6	7
1	38971	3897	19
1	39137	3913.6	12
1	39189	3918.8	17
1	39297	3929.6	13
1	39311	3931	2
1	39535	3953.4	25
1	39627	3962.6	42
1	39673	3967.2	9
1	39817	3981.6	20
1	39875	3987.4	11
1	39931	3993	43
1	39971	3997	3
1	40077	4007.6	2
1	40141	4014	41
1	40181	4018	5
1	40337	4033.6	4
1	40401	4040	17
1	40421	4042	8
1	40467	4046.6	25
1	40529	4052.8	3
1	40599	4059.8	6
1	40645	4064.4	3
1	40697	4069.6	36
1	40715	4071.4	11
1	40773	4077.2	6
1	40839	4083.8	20
1	40887	4088.6	15
1	40981	4098	47
1	41051	4105	12
1	41065	4106.4	8
1	41151	4115	58
1	41205	4120.4	2
1	41399	4139.8	3
1	41453	4145.2	16
1	41469	4146.8	5
1	41593	4159.2	26
1	41633	4163.2	25
1	41683	4168.2	14
1	41757	4175.6	14
1	41777	4177.6	12
1	41807	4180.6	13
1	41979	4197.8	11
1	42029	4202.8	1
1	42137	4213.6	5
1	42203	4220.2	4
1	42245	4224.4	14
1	42267	4226.6	19
1	42299	4229.8	14
1	42443	4244.2	9
1	42461	4246	2
1	42487	4248.6	16
1	42543	4254.2	13
1	42613	4261.2	19
1	42643	4264.2	7
1	43009	4300.8	3
1	43129	4312.8	5
1	43153	4315.2	18
1	43175	4317.4	4
1	43215	4321.4	25
1	43251	4325	14
1	43301	4330	7
1	43623	4362.2	19
1	43785	4378.4	13
1	43859	4385.8	72
1	43911	4391	26
1	43963	4396.2	11
1	43977	4397.6	11
1	44003	4400.2	11
1	44049	4404.8	6
1	44109	4410.8	31
1	44141	4414	27
1	44175	4417.4	17
1	44229	4422.8	6
1	44265	4426.4	14
1	44287	4428.6	7
1	44329	4432.8	15
1	44405	4440.4	7
1	44447	4444.6	31
1	44467	4446.6	7
1	44481	4448	1
1	44655	4465.4	4
1	44723	4472.2	1
1	44849	4484.8	9
1	44907	4490.6	15
1	44957	4495.6	2
1	45009	4500.8	21
1	45097	4509.6	5
1	45225	4522.4	23
1	45295	4529.4	22
1	45371	4537	10
1	45571	4557	11
1	45671	4567	26
1	45703	4570.2	1
1	45729	4572.8	22
1	45843	4584.2	7
1	45871	4587	8
1	45943	4594.2	5
1	45983	4598.2	14
1	46023	4602.2	5
1	46093	4609.2	2
1	46133	4613.2	4
1	46181	4618	2
1	46207	4620.6	13
1	46213	4621.2	5
1	46273	4627.2	5
1	46371	4637	19
1	46399	4639.8	11
1	46517	4651.6	5
1	46539	4653.8	14
1	46629	4662.8	17
1	46865	4686.4	4
1	46885	4688.4	2
1	46905	4690.4	19
1	46967	4696.6	19
1	47007	4700.6	11
1	47073	4707.2	11
1	47083	4708.2	6
1	47089	4708.8	5
1	47227	4722.6	51
1	47305	4730.4	34
1	47313	4731.2	4
1	47351	4735	13
1	47411	4741	4
1	47455	4745.4	1
1	47483	4748.2	3
1	47517	4751.6	2
1	47659	4765.8	23
1	47671	4767	8
1	47689	4768.8	9
1	47753	4775.2	15
1	47795	4779.4	24
1	47823	4782.2	27
1	47837	4783.6	11
1	47887	4788.6	11
1	47891	4789	3
1	47925	4792.4	26
1	47973	4797.2	28
1	48113	4811.2	4
1	48319	4831.8	12
1	48349	4834.8	5
1	48407	4840.6	14
1	48559	4855.8	23
1	48601	4860	4
1	48703	4870.2	19
1	48805	4880.4	4
1	48857	4885.6	3
1	48859	4885.8	1
1	48869	4886.8	5
1	48899	4889.8	2
1	48971	4897	27
1	49055	4905.4	9
1	49075	4907.4	12
1	49151	4915	7
1	49197	4919.6	10
1	49205	4920.4	5
1	49215	4921.4	5
1	49299	4929.8	3
1	49313	4931.2	10
1	49417	4941.6	5
1	49473	4947.2	16
1	49485	4948.4	5
1	49489	4948.8	2
1	49737	4973.6	1
1	49761	4976	2
1	49889	4988.8	53
1	49909	4990.8	6
1	49993	4999.2	8
1	50019	5001.8	19
1	50055	5005.4	4
1	50113	5011.2	31
1	50199	5019.8	16
1	50217	5021.6	9
1	50229	5022.8	4
1	50309	5030.8	11
1	50315	5031.4	4
1	50319	5031.8	3
1	50343	5034.2	4
1	50443	5044.2	10